HEADER
"PSFversion" "1.00"
"design" "(\"Practice\" \"6TSRAM\" \"schematic\" \"\")"
"simulator" "spectre"
"temperature" "27"
"host" ""
"date" "Aug  1 14:50:01 2025"
"title" ""
"analysisList" "()"
END
