HEADER
"PSFversion" "1.00"
"__NEXT_FILE__" "Practice_6TSRAM_schematic"
